
                                 *****************
                                 * O   R   C   A *
                                 *****************

                                            #,                                       
                                            ###                                      
                                            ####                                     
                                            #####                                    
                                            ######                                   
                                           ########,                                 
                                     ,,################,,,,,                         
                               ,,#################################,,                 
                          ,,##########################################,,             
                       ,#########################################, ''#####,          
                    ,#############################################,,   '####,        
                  ,##################################################,,,,####,       
                ,###########''''           ''''###############################       
              ,#####''   ,,,,##########,,,,          '''####'''          '####       
            ,##' ,,,,###########################,,,                        '##       
           ' ,,###''''                  '''############,,,                           
         ,,##''                                '''############,,,,        ,,,,,,###''
      ,#''                                            '''#######################'''  
     '                                                          ''''####''''         
             ,#######,   #######,   ,#######,      ##                                
            ,#'     '#,  ##    ##  ,#'     '#,    #''#        ,####,    ,#,          
            ##       ##  ##   ,#'  ##            #'  '#       #'       ,# #          
            ##       ##  #######   ##           ,######,      #####,      #          
            '#,     ,#'  ##    ##  '#,     ,#' ,#      #,     #,   #      #          
             '#######'   ##     ##  '#######'  #'      '#     '####' #    #          



                #########################################################
                #                        -***-                          #
                #          Department of theory and spectroscopy        #
                #                                                       #
                #                      Frank Neese                      #
                #                                                       #
                #     Directorship, Architecture, Infrastructure        #
                #                    SHARK, DRIVERS                     #
                #        Core code/Algorithms in most modules           #
                #                                                       #
                #        Max Planck Institute fuer Kohlenforschung      #
                #                Kaiser Wilhelm Platz 1                 #
                #                 D-45470 Muelheim/Ruhr                 #
                #                      Germany                          #
                #                                                       #
                #                  All rights reserved                  #
                #                        -***-                          #
                #########################################################


                         Program Version 6.1.1  -  RELEASE   -
                                (GIT: $487d211c$)
                          ($2025-11-21 10:33:24 +0100$)


 With contributions from (in alphabetic order):
[Max-Planck-Institut fuer Kohlenforschung]                               
  Daniel Aravena         : Magnetic Suceptibility                        
  Michael Atanasov       : Ab Initio Ligand Field Theory (pilot matlab implementation)
  Alexander A. Auer      : GIAO ZORA, VPT2 properties, NMR spectrum      
  Ute Becker             : All parallelization in ORCA, NUMFREQ, NUMCALC 
  Giovanni Bistoni       : ED, misc. LED, open-shell LED, HFLD           
  Dmytro Bykov           : pre 5.0 version of the SCF Hessian            
  Marcos Casanova-Páez   : Triplet and SCS-CIS(D). UHF-(DLPNO)-IP/EA/STEOM-CCSD. UHF-CVS-IP/STEOM-CCSD   
  Vijay G. Chilkuri      : MRCI spin determinant printing, contributions to CSF-ICE 
  Pauline Colinet        : FMM embedding                                 
  Dipayan Datta          : RHF DLPNO-CCSD density                        
  Achintya Kumar Dutta   : EOM-CC, STEOM-CC                              
  Nicolas Foglia         : Exact transition moments, OPA infrastructure, MCD improvements    
  Dmitry Ganyushin       : Spin-Orbit,Spin-Spin,Magnetic field MRCI      
  Miquel Garcia-Rates    : C-PCM and meta-GGA Hessian, CCSD/C-PCM, Gaussian charge scheme 
  Tiago L. C. Gouveia    : GS-ROHF, GS-ROCIS                             
  Yang Guo               : DLPNO-NEVPT2, F12-NEVPT2, CIM, IAO-localization        
  Andreas Hansen         : Spin unrestricted coupled pair/coupled cluster methods 
  Ingolf Harden          : AUTO-CI MPn and infrastructure                
  Benjamin Helmich-Paris : MC-RPA, TRAH-(SCF,CASSCF), AVAS, COSX integrals, SCF dyn. polar., MC-PDFT, srDFT 
  Lee Huntington         : MR-EOM, pCC                                   
  Robert Izsak           : Overlap fitted RIJCOSX, COSX-SCS-MP3, EOM     
  Riya Kayal             : Wick's Theorem for AUTO-CI, AUTO-CI UHF-CCSDT 
  Emily Kempfer          : AUTO-CI RHF CISDT and CCSDT, approximate NEVPT4
  Christian Kollmar      : KDIIS, OOCD, Brueckner-CCSD(T), CCSD density, CASPT2, CASPT2-K, improved NEVPT2 
  Axel Koslowski         : Symmetry handling                             
  Simone Kossmann        : meta-GGA functionals, TD-DFT gradient, OOMP2, (MP2 Hessian; deprecated post 5.0) 
  Lucas Lang             : DCDCAS, Hyperfine gauge corrections, ICE-SOC+SSC
  Marvin Lechner         : AUTO-CI (C++ implementation), FIC-MRCC        
  Spencer Leger          : CASSCF response                               
  Dagmar Lenk            : GEPOL surface, SMD, ORCA-2-JSON               
  Dimitrios Liakos       : Extrapolation schemes; Compound Job, Property file
  Dimitrios Manganas     : Further ROCIS development; embedding schemes. LFT, Crystal Embedding 
  Dimitrios Pantazis     : SARC Basis sets                               
  Anastasios Papadopoulos: AUTO-CI, single reference methods and gradients 
  Taras Petrenko         : pre 6.0 DFT Hessian and TD-DFT gradient,  ECA, NRVS 
  Petra Pikulova         : Analytic Raman intensities                    
  Peter Pinski           : DLPNO-MP2, DLPNO-MP2 Gradient                 
  Shashank Vittal Rao    : ES-AILFT, MagRelax                            
  Christoph Reimann      : Effective Core Potentials                     
  Marius Retegan         : Local ZFS, SOC                                
  Christoph Riplinger    : Optimizer, TS searches, QM/MM, DLPNO-CCSD(T), (RO)-DLPNO pert. Triples 
  Michael Roemelt        : Original ROCIS implementation, recursive CI coupling coefficients
  Masaaki Saitow         : Open-shell DLPNO-CCSD energy and density      
  Barbara Sandhoefer     : DKH picture change effects                    
  Yorick L. A. Schmerwitz: GMF and freeze-and-release deltaSCF, NEB S-IDPP initial path                    
  Kantharuban Sivalingam : CASSCF convergence/infrastructure, NEVPT2, NEVPT3, NEVPT4(SD), FIC-MRCI and CEPA variants
  Bernardo de Souza      : ESD, SOC TD-DFT                               
  Georgi L. Stoychev     : AutoAux, RI-MP2 NMR, DLPNO-MP2 response, X2C  
  Van Anh Tran           : RI-MP2 g-tensors                              
  Willem Van den Heuvel  : Paramagnetic NMR                              
  Zikuan Wang            : NOTCH, Electric field optimization            
  Frank Wennmohs         : Technical directorship and infrastructure     
  Hang Xu                : AUTO-CI-Response properties                   
                                                                         
[FACCTs GmbH]                                                            
  Markus Bursch, Nicolas Foglia, Miquel Garcia-Rates, Ingolf Harden, Hagen Neugebauer, Anastasios Papadopoulos, 
  Christoph Riplinger, Bernardo de Souza, Georgi L. Stoychev                                                    
                                                                 
  APM, various basis sets, CI-OPT, improved COSX, DLPNO-Multilevel,           
  DOCKER, DRACO, updates on ESD, Fragmentator, GOAT, IRC, LR-CPCM, L-BFGS, MBIS, meta-GGA TD-DFT gradient, ML-optimized integration grids, 
  MM, NACMEs, nearIR, NEB, NEB-TS, NL-DFT gradient (VV10), 2- and 3-layer-ONIOM, interface openCOSMO-RS, QMMM,   
  Crystal-QMMM, RESP, rigid body optimization, SF, symmetry and pop. for TD-DFT, various functionals, SOLVATOR                                   
                                                                         
[Other institutions]                                                     
  V. Asgeirsson          : NEB                                           
  Christoph Bannwarth    : sTDA-DFT, sTD-DFT, PBEh-3c, B97-3c, D3        
  Giovanni Bistoni       : ETS/NOCV, ADLD/ADEX, COVALED                  
  Martin Brehm           : Molecular dynamics                            
  Ronald Cardenas        : ETS/NOCV                                      
  Martina Colucci        : COVALED                                       
  Sebastian Ehlert       : rSCAN, r2SCAN, r2SCAN-3c, D4, dhf basis sets  
  Marvin Friede          : D4 for Fr, Ra, Ac-Lr                          
  Lars Goerigk           : TD-DFT with DH, B97 family of functionals     
  Stefan Grimme          : VdW corrections, initial TS optimization, DFT functionals, gCP, sTDA/sTD-DF 
  Waldemar Hujo          : DFT-NL                                        
  H. Jonsson             : NEB                                           
  Holger Kruse           : gCP                                           
  Marcel Mueller         : wB97X-3c, vDZP basis set                      
  Hagen Neugebauer       : wr2SCAN, Native XTB                           
  Gianluca Regni         : ADLD/ADEX                                     
  Tobias Risthaus        : pre 6.0 range-separated hybrid DFT and stability analysis
  Lukas Wittmann         : regularized MP2, r2SCAN double-hybrids, wr2SCAN        
                                                                         
We gratefully acknowledge several colleagues who have allowed us to      
interface, adapt or use parts of their codes:                            
  Ed Valeev, F. Pavosevic, A. Kumar             : LibInt (2-el integral package), F12 methods 
  Garnet Chan, S. Sharma, J. Yang, R. Olivares  : DMRG                   
  Ulf Ekstrom                                   : XCFun DFT Library      
  Mihaly Kallay                                 : mrcc  (arbitrary order and MRCC methods)
  Frank Weinhold                                : gennbo (NPA and NBO analysis)           
  Simon Mueller                                 : openCOSMO-RS                            
  Christopher J. Cramer and Donald G. Truhlar   : smd solvation model                     
  S Lehtola, MJT Oliveira, MAL Marques          : LibXC Library                           
  Liviu Ungur et al                             : ANISO software                          


 Your calculation uses the libint2 library for the computation of 2-el integrals
 For citations please refer to: http://libint.valeyev.net

 Your ORCA version has been built with support for libXC version: 7.0.0
 For citations please refer to: https://libxc.gitlab.io

 This ORCA versions uses:
   CBLAS   interface :  Fast vector & matrix operations
   LAPACKE interface :  Fast linear algebra routines
   SCALAPACK package :  Parallel linear algebra routines
   Shared memory     :  Shared parallel matrices
   BLAS/LAPACK       :  OpenBLAS 0.3.29  USE64BITINT DYNAMIC_ARCH NO_AFFINITY Haswell SINGLE_THREADED
        Core in use  :  Haswell
   Copyright (c) 2011-2014, The OpenBLAS Project


  ***********************************
  * Starting time: Sun May 10 22:09:08 2026
  * Host name:     legion
  * Process ID:    167991
  * Working dir.:  /home/diegoa/dev/pysoc/examples/ch2o_orca
  ***********************************

Your calculation utilizes the atom-pairwise dispersion correction
with the zero-damping scheme (D30)


XCFun DFT library Copyright 2009-2010 Ulf Ekstrom and contributors.
See http://admol.org/xcfun for more information.
This is free software; see the source code for copying conditions.
There is ABSOLUTELY NO WARRANTY; not even for MERCHANTABILITY or FITNESS FOR A PARTICULAR PURPOSE.
For details see the documentation.
Scientific users of this library should cite U. Ekstrom, L. Visscher, R. Bast, A. J. Thorvaldsen and K. Ruud;
J.Chem.Theor.Comp. 2010, DOI: 10.1021/ct100117s
XCFun Version 0.99 

Warning: RI is on but no J-basis has been assigned. Assigning Def2/J (nothing to worry about!)
================================================================================

----- Orbital basis set information -----
Your calculation utilizes the basis: TZVP 

----- AuxJ basis set information -----
Your calculation utilizes the auxiliary basis: def2/J
   H-Rn: F. Weigend, Phys. Chem. Chem. Phys. 8, 1057 (2006).
   Fr-Lr: K. Eichkorn, F. Weigend, O. Treutler, R. Ahlrichs; Theor. Chem. Acc. 97, 119 (1997).

================================================================================
                                        WARNINGS
                       Please study these warnings very carefully!
================================================================================

WARNING: Old DensityContainer found on disk!
         Will remove this file - 
         If you want to keep old densities, please start your calculation with a different basename. 


WARNING: CIS/ROCIS methods need fully converged wavefunctions
  ===> : Setting SCFConvForced true
         You can overwrite this default with %scf ConvForced false 


================================================================================
                                       INPUT FILE
================================================================================
NAME = ch2o_orca.inp
|  1> ! wB97X-D3 TZVP
|  2> %tddft
|  3>     nroots 5
|  4> end
|  5> %output
|  6>     Print[ P_Basis ] 2
|  7>     Print[ P_Overlap ] 1
|  8>     Print[ P_MOs ] 1
|  9> end
| 10> 
| 11> * xyz 0 1
| 12> C         -0.131829      -0.000001      -0.000286
| 13> O          1.065288       0.000001       0.000090
| 14> H         -0.718439       0.939705       0.000097
| 15> H         -0.718441      -0.939705       0.000136
| 16> *
| 17> 
| 18>                          ****END OF INPUT****
================================================================================

                       ****************************
                       * Single Point Calculation *
                       ****************************

---------------------------------
CARTESIAN COORDINATES (ANGSTROEM)
---------------------------------
  C     -0.131829   -0.000001   -0.000286
  O      1.065288    0.000001    0.000090
  H     -0.718439    0.939705    0.000097
  H     -0.718441   -0.939705    0.000136

----------------------------
CARTESIAN COORDINATES (A.U.)
----------------------------
  NO LB      ZA    FRAG     MASS         X           Y           Z
   0 C     6.0000    0    12.011   -0.249121   -0.000002   -0.000540
   1 O     8.0000    0    15.999    2.013103    0.000002    0.000170
   2 H     1.0000    0     1.008   -1.357653    1.775785    0.000183
   3 H     1.0000    0     1.008   -1.357657   -1.775785    0.000257

--------------------------------
INTERNAL COORDINATES (ANGSTROEM)
--------------------------------
 C      0   0   0     0.000000000000     0.00000000     0.00000000
 O      1   0   0     1.197117059050     0.00000000     0.00000000
 H      1   2   0     1.107772000560   121.97430022     0.00000000
 H      1   2   3     1.107771377245   121.97463299   180.07155043

---------------------------
INTERNAL COORDINATES (A.U.)
---------------------------
 C      0   0   0     0.000000000000     0.00000000     0.00000000
 O      1   0   0     2.262223391850     0.00000000     0.00000000
 H      1   2   0     2.093385699885   121.97430022     0.00000000
 H      1   2   3     2.093384521990   121.97463299   180.07155043

---------------------
BASIS SET INFORMATION
---------------------
There are 3 groups of distinct atoms

 Group   1 Type C   : 11s6p1d contracted to 5s3p1d pattern {62111/411/1}
 Group   2 Type O   : 11s6p1d contracted to 5s3p1d pattern {62111/411/1}
 Group   3 Type H   : 5s1p contracted to 3s1p pattern {311/1}

Atom   0C    basis set group =>   1
Atom   1O    basis set group =>   2
Atom   2H    basis set group =>   3
Atom   3H    basis set group =>   3

-------------------------
BASIS SET IN INPUT FORMAT
-------------------------

 # Basis set for element : H 
 NewGTO H 
 S 3 
   1      34.0613410000      0.0254393168
   2       5.1235746000      0.1900859340
   3       1.1646626000      0.8524411390
 S 1 
   1       0.3272304100      1.0000000000
 S 1 
   1       0.1030724100      1.0000000000
 P 1 
   1       0.8000000000      1.0000000000
  end;

 # Basis set for element : C 
 NewGTO C 
 S 6 
   1   13575.3496820000      0.0006064601
   2    2035.2333680000      0.0046978985
   3     463.2256235900      0.0243324735
   4     131.2001959800      0.0973999560
   5      42.8530158900      0.3019558443
   6      15.5841857700      0.6623361013
 S 2 
   1       6.2067138500      0.6559530795
   2       2.5764896500      0.3758563390
 S 1 
   1       0.5769633900      1.0000000000
 S 1 
   1       0.2297283100      1.0000000000
 S 1 
   1       0.0951644400      1.0000000000
 P 4 
   1      34.6972322400      0.0113272290
   2       7.9582622800      0.0761696612
   3       2.3780826900      0.3019225154
   4       0.8143320800      0.7278502776
 P 1 
   1       0.2888754700      1.0000000000
 P 1 
   1       0.1005682400      1.0000000000
 D 1 
   1       0.8000000000      1.0000000000
  end;

 # Basis set for element : O 
 NewGTO O 
 S 6 
   1   27032.3826310000      0.0005722654
   2    4052.3871392000      0.0044353333
   3     922.3272271000      0.0230201034
   4     261.2407098900      0.0928224938
   5      85.3546413500      0.2937849971
   6      31.0350352400      0.6740160462
 S 2 
   1      12.2608607300      0.6383993750
   2       4.9987076000      0.3953458663
 S 1 
   1       1.1703108200      1.0000000000
 S 1 
   1       0.4647474100      1.0000000000
 S 1 
   1       0.1850453600      1.0000000000
 P 4 
   1      63.2749548000      0.0120183316
   2      14.6270493800      0.0830054304
   3       4.4501223500      0.3199174388
   4       1.5275799600      0.7071554258
 P 1 
   1       0.5293511800      1.0000000000
 P 1 
   1       0.1747842100      1.0000000000
 D 1 
   1       1.2000000000      1.0000000000
  end;

---------------------------------
AUXILIARY/J BASIS SET INFORMATION
---------------------------------
There are 3 groups of distinct atoms

 Group   1 Type C   : 12s5p4d2f1g contracted to 6s4p3d1f1g pattern {711111/2111/211/2/1}
 Group   2 Type O   : 12s5p4d2f1g contracted to 6s4p3d1f1g pattern {711111/2111/211/2/1}
 Group   3 Type H   : 5s2p1d contracted to 3s1p1d pattern {311/2/1}

Atom   0C    basis set group =>   1
Atom   1O    basis set group =>   2
Atom   2H    basis set group =>   3
Atom   3H    basis set group =>   3

-------------------------------------
AUXILIARY/J BASIS SET IN INPUT FORMAT
-------------------------------------

 # Auxiliary/J basis set for element : H 
 NewAuxJGTO H 
 S 3 
   1      15.6752927000      0.1007184237
   2       3.6063578000      0.3404257499
   3       1.2080016000      0.6491996172
 S 1 
   1       0.4726794000      1.0000000000
 S 1 
   1       0.2018100000      1.0000000000
 P 2 
   1       2.0281365000      0.5596620919
   2       0.5358730000      0.5596620919
 D 1 
   1       2.2165124000      1.0000000000
  end;

 # Auxiliary/J basis set for element : C 
 NewAuxJGTO C 
 S 7 
   1    1861.0916331000      0.0134602335
   2     642.9939764000      0.0299160374
   3     235.1105725000      0.1008649584
   4      90.7028894000      0.2370970548
   5      36.7794552000      0.3924037254
   6      15.6046273000      0.3195862154
   7       6.8907294000      0.0530104441
 S 1 
   1       3.1478850000     -1.0000000000
 S 1 
   1       1.4777287000      1.0000000000
 S 1 
   1       0.7076466000      1.0000000000
 S 1 
   1       0.3430122000      1.0000000000
 S 1 
   1       0.1669453000      1.0000000000
 P 2 
   1      13.5472892000     -0.6769313712
   2       5.4669419000     -0.3779500978
 P 1 
   1       2.1751721000      1.0000000000
 P 1 
   1       0.8582194000      1.0000000000
 P 1 
   1       0.3376720000      1.0000000000
 D 2 
   1       5.9287253000     -0.3533329857
   2       1.9809209000     -0.7456525731
 D 1 
   1       0.8055417000     -1.0000000000
 D 1 
   1       0.3531244000     -1.0000000000
 F 2 
   1       1.6755626000      0.6311076882
   2       0.5997536000      0.4968166032
 G 1 
   1       1.0024600000     -1.0000000000
  end;

 # Auxiliary/J basis set for element : O 
 NewAuxJGTO O 
 S 7 
   1    2876.8216605000      0.0168151159
   2    1004.7443032000      0.0340137548
   3     369.7579954000      0.1194951309
   4     142.9442404000      0.2664627624
   5      57.8366425000      0.4202764046
   6      24.3864983000      0.2765077335
   7      10.6622662000      0.0057008815
 S 1 
   1       4.8070437000     -1.0000000000
 S 1 
   1       2.2210770000      1.0000000000
 S 1 
   1       1.0447795000      1.0000000000
 S 1 
   1       0.4968425000      1.0000000000
 S 1 
   1       0.2371384000      1.0000000000
 P 2 
   1      64.2613382000     -0.2731534179
   2      16.3006076000     -0.8168011598
 P 1 
   1       4.3550542000      1.0000000000
 P 1 
   1       1.2019554000      1.0000000000
 P 1 
   1       0.3354196000      1.0000000000
 D 2 
   1       9.2146611000     -0.4661230638
   2       2.8435251000     -0.6600908911
 D 1 
   1       0.9955759000     -1.0000000000
 D 1 
   1       0.3649441000     -1.0000000000
 F 2 
   1       2.6420115000      0.5931563945
   2       0.7345613000      0.5931563945
 G 1 
   1       1.3931000000     -1.0000000000
  end;


Checking for AutoStart:
The File: ch2o_orca.gbw exists
Trying to determine its content:
     ... Fine, the file contains calculation information
     ... Fine, the calculation information was read
     ... Fine, the file contains a basis set
     ... Fine, the basis set was read
     ... Fine, the file contains a geometry
     ... Fine, the geometry was read
     ... Fine, the file contains a set of orbitals
     ... Fine, the orbitals can be read
     => possible old guess file was deleted
     => GBW file was renamed to GES file
     => GES file is set as startup file
     => Guess is set to MORead
     ... now leaving AutoStart

------------------------------------------------------------------------------
                             ORCA STARTUP CALCULATIONS
                           -- RI-GTO INTEGRALS CHOSEN --
------------------------------------------------------------------------------
------------------------------------------------------------------------------
                   ___                                                        
                  /   \      - P O W E R E D   B Y -                         
                 /     \                                                     
                 |  |  |   _    _      __       _____    __    __             
                 |  |  |  | |  | |    /  \     |  _  \  |  |  /  |          
                  \  \/   | |  | |   /    \    | | | |  |  | /  /          
                 / \  \   | |__| |  /  /\  \   | |_| |  |  |/  /          
                |  |  |   |  __  | /  /__\  \  |    /   |      \           
                |  |  |   | |  | | |   __   |  |    \   |  |\   \          
                \     /   | |  | | |  |  |  |  | |\  \  |  | \   \       
                 \___/    |_|  |_| |__|  |__|  |_| \__\ |__|  \__/        
                                                                              
                      - O R C A' S   B I G   F R I E N D -                    
                                      &                                       
                       - I N T E G R A L  F E E D E R -                       
                                                                              
 v1 FN, 2020, v2 2021, v3 2022-2024                                           
------------------------------------------------------------------------------


----------------------
SHARK INTEGRAL PACKAGE
----------------------

Number of atoms                             ...      4
Number of basis functions                   ...     50
Number of shells                            ...     26
Maximum angular momentum                    ...      2
Integral batch strategy                     ... SHARK/LIBINT Hybrid
RI-J (if used) integral strategy            ... SPLIT-RIJ (Revised 2003 algorithm where possible)
Printlevel                                  ...      1
Contraction scheme used                     ... SEGMENTED contraction
Prescreening option                         ... SCHWARTZ
   Thresh                                   ... 1.000e-10
   Tcut                                     ... 1.000e-11
   Tpresel                                  ... 1.000e-11 
Coulomb Range Separation                    ... NOT USED
Exchange Range Separation                   ... Long Range
   Mu parameter                             ... 2.500e-01
   Scaling (regular/separated)              ... 1.957e-01 8.043e-01
Robust (split-)RI terms used:
  metric    (central integrals)             ... YES
  density   (r.h.s.  integrals)             ... YES
  potential (l.h.s.  integrals)             ... YES
Multipole approximations                    ... NOT USED
Finite Nucleus Model                        ... NOT USED
CABS basis                                  ... NOT available
Auxiliary Coulomb fitting basis             ... AVAILABLE
   # of basis functions in Aux-J            ...    120
   # of shells in Aux-J                     ...     40
   Maximum angular momentum in Aux-J        ...      4
Auxiliary J/K fitting basis                 ... NOT available
Auxiliary Correlation fitting basis         ... NOT available
Auxiliary 'external' fitting basis          ... NOT available

Checking pre-screening integrals            ... done (  0.0 sec) Dimension = 26
   => SHARK Basis and OBASIS are compatible. Storing Pre-screening
Shell pair information
Shell pair cut-off parameter TPreSel        ...   1.0e-11
Total number of shell pairs                 ...       351
Shell pairs after pre-screening             ...       350
Total number of primitive shell pairs       ...      1226
Primitive shell pairs kept                  ...      1088
          la=0 lb=0:    135 shell pairs
          la=1 lb=0:    128 shell pairs
          la=1 lb=1:     36 shell pairs
          la=2 lb=0:     32 shell pairs
          la=2 lb=1:     16 shell pairs
          la=2 lb=2:      3 shell pairs

Checking whether 4 symmetric matrices of dimension 50 fit in memory
:Max Core in MB      =   4096.00
 MB in use           =      3.62
 MB left             =   4092.38
 MB needed           =      0.04
 Data fit in memory  = YES
Calculating RI/J V-Matrix + Cholesky decomp.... done (  0.0 sec)
Calculating Nuclear repulsion               ... done (  0.0 sec) ENN=     31.431545256698 Eh

Diagonalization of the overlap matrix:
Smallest eigenvalue                        ... 5.470e-03
Time for diagonalization                   ...    0.000 sec
Threshold for overlap eigenvalues          ... 1.000e-07
Number of eigenvalues below threshold      ... 0
Time for construction of square roots      ...    0.000 sec
Total time needed                          ...    0.000 sec

-------------------
DFT GRID GENERATION
-------------------

General Integration Accuracy     IntAcc      ... 4.388
Radial Grid Type                 RadialGrid  ... OptM3 with GC (2021)
Angular Grid (max. ang.)         AngularGrid ... 4 (Lebedev-302)
Angular grid pruning method      GridPruning ... 4 (adaptive)
Weight generation scheme         WeightScheme... mBecke (2022)
Basis function cutoff            BFCut       ... 1.0000e-10
Integration weight cutoff        WCut        ... 1.0000e-14
Partially contracted basis set               ... off
Rotationally invariant grid construction     ... off
Angular grids for H and He will be reduced by one unit

Total number of grid points                  ...    18835
Total number of batches                      ...      296
Average number of points per batch           ...       63
Average number of grid points per atom       ...     4709

--------------------
COSX GRID GENERATION
--------------------

GRIDX 1
-------
General Integration Accuracy     IntAcc      ... 3.816
Radial Grid Type                 RadialGrid  ... OptM3 with GC (2021)
Angular Grid (max. ang.)         AngularGrid ... 1 (Lebedev-50)
Angular grid pruning method      GridPruning ... 4 (adaptive)
Weight generation scheme         WeightScheme... mBecke (2022)
Basis function cutoff            BFCut       ... 1.0000e-10
Integration weight cutoff        WCut        ... 1.0000e-14
Partially contracted basis set               ... on
Rotationally invariant grid construction     ... off
Angular grids for H and He will be reduced by one unit

Total number of grid points                  ...     2416
Total number of batches                      ...       22
Average number of points per batch           ...      109
Average number of grid points per atom       ...      604
UseSFitting                                  ... on

GRIDX 2
-------
General Integration Accuracy     IntAcc      ... 4.020
Radial Grid Type                 RadialGrid  ... OptM3 with GC (2021)
Angular Grid (max. ang.)         AngularGrid ... 2 (Lebedev-110)
Angular grid pruning method      GridPruning ... 4 (adaptive)
Weight generation scheme         WeightScheme... mBecke (2022)
Basis function cutoff            BFCut       ... 1.0000e-10
Integration weight cutoff        WCut        ... 1.0000e-14
Partially contracted basis set               ... on
Rotationally invariant grid construction     ... off
Angular grids for H and He will be reduced by one unit

Total number of grid points                  ...     5360
Total number of batches                      ...       44
Average number of points per batch           ...      121
Average number of grid points per atom       ...     1340
UseSFitting                                  ... on

GRIDX 3
-------
General Integration Accuracy     IntAcc      ... 4.338
Radial Grid Type                 RadialGrid  ... OptM3 with GC (2021)
Angular Grid (max. ang.)         AngularGrid ... 3 (Lebedev-194)
Angular grid pruning method      GridPruning ... 4 (adaptive)
Weight generation scheme         WeightScheme... mBecke (2022)
Basis function cutoff            BFCut       ... 1.0000e-10
Integration weight cutoff        WCut        ... 1.0000e-14
Partially contracted basis set               ... on
Rotationally invariant grid construction     ... off
Angular grids for H and He will be reduced by one unit

Total number of grid points                  ...    11891
Total number of batches                      ...       94
Average number of points per batch           ...      126
Average number of grid points per atom       ...     2973
UseSFitting                                  ... on
Grids setup in   0.1 sec
Initializing property integral containers    ... done (  0.0 sec)

SHARK setup successfully completed in   0.1 seconds

Maximum memory used throughout the entire STARTUP-calculation: 9.8 MB
-------------------------------------------------------------------------------
                                 ORCA GUESS
                   Start orbitals & Density for SCF / CASSCF
-------------------------------------------------------------------------------

------------
SCF SETTINGS
------------
Hamiltonian:
 Density Functional     Method          .... DFT(GTOs)
 Exchange Functional    Exchange        .... WB97X-D3
 Correlation Functional Correlation     .... WB97X-D3
 Gradients option       PostSCFGGA      .... off
 Hybrid DFT is turned on
   Fraction HF Exchange ScalHFX         ....  0.195728
   Scaling of DF-GGA-X  ScalDFX         ....  0.000000
   Scaling of DF-GGA-C  ScalDFC         ....  1.000000
   Scaling of DF-LDA-C  ScalLDAC        ....  1.000000
   Perturbative correction              ....  0.000000
 Long-range corrected/Screened/Range-Separated Hybrid DFT is turned on
   Amount of maximum screened exact exchange              ....  0.804272
   Range separation parameter mu (erf(mu*r12)/r12)        ....  0.250000
 RI-approximation to the Coulomb term is turned on
   Number of AuxJ basis functions       .... 120
   RIJ-COSX (HFX calculated with COS-X)).... on


General Settings:
 Integral files         IntName         .... ch2o_orca
 Hartree-Fock type      HFTyp           .... RHF
 Total Charge           Charge          ....    0
 Multiplicity           Mult            ....    1
 Number of Electrons    NEL             ....   16
 Basis Dimension        Dim             ....   50
 Nuclear Repulsion      ENuc            ....     31.4315452567 Eh

Convergence Acceleration:
 AO-DIIS                CNVDIIS         .... on
   Start iteration      DIISMaxIt       ....    12
   Startup error        DIISStart       ....  0.200000
   # of expansion vecs  DIISMaxEq       ....     5
   Bias factor          DIISBfac        ....   1.050
   Max. coefficient     DIISMaxC        ....  10.000
 MO-DIIS                CNVKDIIS        .... off
 Trust-Rad. Augm. Hess. CNVTRAH         .... auto
   Auto Start mean grad. ratio tolernc. ....  1.125000
   Auto Start start iteration           ....     1
   Auto Start num. interpolation iter.  ....    10
   Max. Number of Micro iterations      ....    24
   Max. Number of Macro iterations      .... Maxiter - #DIIS iter
   Number of Davidson start vectors     ....     2
   Converg. threshold    (grad. norm)   ....   5.000e-05
   Grad. Scal. Fac. for Micro threshold ....   0.100
   Minimum threshold for Micro iter.    ....   1.000e-02
   NR start threshold (gradient norm)   ....   1.000e-04
   Initial trust radius                 ....   0.400
   Minimum AH scaling param. (alpha)    ....   1.000
   Maximum AH scaling param. (alpha)    .... 1000.000
   Quad. conv. algorithm                .... NR
   White noise on init. David. guess    .... on
   Maximum white noise                  ....   0.010
   Pseudo random numbers                .... off
   Inactive MOs                         .... canonical
   Orbital update algorithm             .... Taylor
   Preconditioner                       .... Diag
   Full preconditioner red. dimension   ....   250
 SOSCF                 CNVSOSCF           .... on
   Start iteration     SOSCFMaxIt         ....   150
   Startup grad/error  SOSCFStart         ....  0.003300
   Hessian update      SOSCFHessUp        .... L-BFGS
   Autom. constraints  SOSCFAutoConstrain .... off
 Level Shifting         CNVShift        .... on
   Level shift para.    LevelShift      ....    0.2500
   Turn off err/grad.   ShiftErr        ....    0.0010
 Zerner damping         CNVZerner       .... off
 Static damping         CNVDamp         .... on
   Fraction old density DampFac         ....    0.7000
   Max. Damping (<1)    DampMax         ....    0.9800
   Min. Damping (>=0)   DampMin         ....    0.0000
   Turn off err/grad.   DampErr         ....    0.1000

SCF Procedure:
 Maximum # iterations   MaxIter         ....   125
 SCF integral mode      SCFMode         .... Direct
   Integral package                     .... SHARK and LIBINT hybrid scheme
 Reset frequency        DirectResetFreq ....    20
 Integral Threshold     Thresh          ....  1.000e-10 Eh
 Primitive CutOff       TCut            ....  1.000e-11 Eh

Convergence Tolerance:
 Convergence Check Mode ConvCheckMode   .... Total+1el-Energy
 Convergence forced     ConvForced      .... 1
 Energy Change          TolE            ....  1.000e-06 Eh
 1-El. energy change                    ....  1.000e-03 Eh
 Orbital Gradient       TolG            ....  5.000e-05
 Orbital Rotation angle TolX            ....  5.000e-05
 DIIS Error             TolErr          ....  1.000e-06

---------------------
INITIAL GUESS: MOREAD
---------------------
Guess MOs are being read from file: ch2o_orca.ges
Input Geometry matches current geometry (good)
Input basis set matches current basis set (good)
Occupation numbers will be reassigned to an Aufbau configuration
MOs were renormalized
MOs were reorthogonalized (Cholesky)
                      ------------------
                      INITIAL GUESS DONE (   0.0 sec)
                      ------------------
             **** ENERGY FILE WAS UPDATED (ch2o_orca.en.tmp) ****
Finished Guess after   0.0 sec
Maximum memory used throughout the entire GUESS-calculation: 6.0 MB

-------------------------------------------------------------------------------------------
                                      ORCA LEAN-SCF
                              memory conserving SCF solver
-------------------------------------------------------------------------------------------

--------------
OVERLAP MATRIX
--------------
                  0          1          2          3          4          5    
      0       1.000000   0.685599   0.187969   0.096914   0.050601   0.000000
      1       0.685599   1.000000   0.528931   0.300858   0.163841  -0.000000
      2       0.187969   0.528931   1.000000   0.857543   0.582216   0.000000
      3       0.096914   0.300858   0.857543   1.000000   0.868364   0.000000
      4       0.050601   0.163841   0.582216   0.868364   1.000000   0.000000
      5       0.000000  -0.000000   0.000000   0.000000   0.000000   1.000000
      6      -0.000000   0.000000   0.000000   0.000000   0.000000  -0.000000
      7       0.000000   0.000000   0.000000   0.000000   0.000000   0.000000
      8      -0.000000   0.000000   0.000000   0.000000   0.000000   0.626035
      9      -0.000000   0.000000   0.000000   0.000000   0.000000   0.000000
     10       0.000000   0.000000   0.000000   0.000000   0.000000   0.000000
     11      -0.000000   0.000000   0.000000   0.000000   0.000000   0.256644
     12      -0.000000   0.000000   0.000000   0.000000   0.000000   0.000000
     13      -0.000000  -0.000000   0.000000   0.000000  -0.000000   0.000000
     14      -0.000000  -0.000000  -0.000000   0.000000  -0.000000   0.000000
     15       0.000000   0.000000   0.000000   0.000000   0.000000   0.000000
     16       0.000000   0.000000   0.000000   0.000000   0.000000   0.000000
     17      -0.000000  -0.000000  -0.000000  -0.000000  -0.000000  -0.000000
     18       0.000000   0.000000   0.000000   0.000000   0.000000   0.000000
     19       0.000000   0.000001   0.006330   0.018295   0.018797   0.000002
     20       0.000000   0.000026   0.023467   0.061764   0.063332   0.000009
     21       0.001103   0.008111   0.126237   0.238597   0.244142   0.000050
     22       0.015871   0.056662   0.265519   0.415619   0.434584   0.000080
     23       0.032392   0.105719   0.387724   0.586687   0.668279   0.000063
     24      -0.000000  -0.000003  -0.000038  -0.000037  -0.000017   0.035075
     25      -0.000983  -0.009439  -0.120978  -0.117786  -0.053688  -0.000064
     26      -0.000000  -0.000000  -0.000000  -0.000000  -0.000000  -0.000000
     27      -0.000013  -0.000043  -0.000131  -0.000121  -0.000064   0.151288
     28      -0.040697  -0.135468  -0.417375  -0.386487  -0.202294  -0.000163
     29      -0.000000  -0.000000  -0.000001  -0.000001  -0.000000  -0.000000
     30      -0.000019  -0.000060  -0.000178  -0.000200  -0.000143   0.202400
     31      -0.061264  -0.192454  -0.567438  -0.637406  -0.454380  -0.000095
     32      -0.000000  -0.000000  -0.000001  -0.000001  -0.000001  -0.000000
     33      -0.006099  -0.028917  -0.092248  -0.042959  -0.009191  -0.000111
     34       0.000007   0.000031   0.000100   0.000047   0.000010  -0.131393
     35       0.000000   0.000000   0.000000   0.000000   0.000000  -0.000000
     36       0.010564   0.050087   0.159779   0.074408   0.015919   0.000110
     37       0.000000   0.000000   0.000001   0.000000   0.000000   0.000000
     38       0.002147   0.013269   0.152995   0.254300   0.240796   0.000067
     39       0.030653   0.101360   0.377362   0.540733   0.552907   0.000097
     40       0.034263   0.111769   0.414030   0.651066   0.804101   0.000041
     41      -0.000010  -0.000037  -0.000122  -0.000100  -0.000046   0.140345
     42       0.015606   0.056914   0.187466   0.153755   0.070291   0.000096
     43      -0.025000  -0.091171  -0.300306  -0.246304  -0.112600  -0.000154
     44       0.002147   0.013270   0.152996   0.254300   0.240796   0.000074
     45       0.030653   0.101360   0.377363   0.540733   0.552907   0.000107
     46       0.034263   0.111769   0.414030   0.651066   0.804101   0.000045
     47      -0.000011  -0.000041  -0.000135  -0.000111  -0.000051   0.140345
     48       0.015607   0.056914   0.187467   0.153755   0.070291   0.000106
     49       0.025000   0.091172   0.300306   0.246304   0.112600   0.000170
                  6          7          8          9         10         11    
      0      -0.000000   0.000000  -0.000000  -0.000000   0.000000  -0.000000
      1       0.000000   0.000000   0.000000   0.000000   0.000000   0.000000
      2       0.000000   0.000000   0.000000   0.000000   0.000000   0.000000
      3       0.000000   0.000000   0.000000   0.000000   0.000000   0.000000
      4       0.000000   0.000000   0.000000   0.000000   0.000000   0.000000
      5      -0.000000   0.000000   0.626035   0.000000   0.000000   0.256644
      6       1.000000   0.000000   0.000000   0.626035   0.000000   0.000000
      7       0.000000   1.000000   0.000000   0.000000   0.626035   0.000000
      8       0.000000   0.000000   1.000000   0.000000   0.000000   0.716849
      9       0.626035   0.000000   0.000000   1.000000   0.000000   0.000000
     10       0.000000   0.626035   0.000000   0.000000   1.000000   0.000000
     11       0.000000   0.000000   0.716849   0.000000   0.000000   1.000000
     12       0.256644   0.000000   0.000000   0.716849   0.000000   0.000000
     13       0.000000   0.256644   0.000000   0.000000   0.716849   0.000000
     14      -0.000000  -0.000000   0.000000   0.000000   0.000000   0.000000
     15       0.000000   0.000000   0.000000   0.000000   0.000000   0.000000
     16       0.000000   0.000000   0.000000   0.000000   0.000000   0.000000
     17       0.000000  -0.000000   0.000000   0.000000   0.000000   0.000000
     18       0.000000   0.000000   0.000000   0.000000   0.000000   0.000000
     19       0.007336   0.000000   0.000012   0.038791   0.000000   0.000009
     20       0.028393   0.000000   0.000040   0.127613   0.000000   0.000029
     21       0.158271   0.000000   0.000133   0.423945   0.000001   0.000102
     22       0.255834   0.000000   0.000181   0.577835   0.000001   0.000162
     23       0.199142   0.000000   0.000161   0.513784   0.000001   0.000195
     24      -0.000064  -0.000000   0.106759  -0.000085  -0.000000   0.079808
     25      -0.168558  -0.000000  -0.000085  -0.162694  -0.000000  -0.000024
     26      -0.000000   0.035075  -0.000000  -0.000000   0.106759  -0.000000
     27      -0.000163  -0.000000   0.343232  -0.000206  -0.000000   0.298046
     28      -0.367066  -0.000001  -0.000206  -0.313321  -0.000001  -0.000081
     29      -0.000001   0.151288  -0.000000  -0.000001   0.343232  -0.000000
     30      -0.000095  -0.000000   0.529740  -0.000185  -0.000000   0.656408
     31      -0.100721  -0.000001  -0.000185  -0.060702  -0.000001  -0.000135
     32      -0.000001   0.202400  -0.000000  -0.000001   0.529740  -0.000000
     33      -0.126899  -0.000000  -0.000094  -0.017968  -0.000000  -0.000022
     34       0.000179   0.000000  -0.162490   0.000071   0.000000  -0.049721
     35       0.000000  -0.000041  -0.000000   0.000000  -0.000051  -0.000000
     36       0.219795   0.000001   0.000061   0.031122   0.000001   0.000007
     37       0.000001  -0.131393   0.000000   0.000000  -0.162490   0.000000
     38      -0.102785   0.164654   0.000151  -0.230612   0.369423   0.000104
     39      -0.148902   0.238530   0.000210  -0.322152   0.516064   0.000196
     40      -0.062434   0.100015   0.000121  -0.185592   0.297305   0.000186
     41       0.000096  -0.000154   0.289035   0.000098  -0.000158   0.212910
     42      -0.006870   0.235827   0.000098   0.138271   0.241514   0.000031
     43       0.235827  -0.237432  -0.000158   0.241514  -0.097853  -0.000049
     44      -0.102786  -0.164654   0.000166  -0.230613  -0.369422   0.000114
     45      -0.148903  -0.238530   0.000232  -0.322154  -0.516063   0.000216
     46      -0.062435  -0.100015   0.000134  -0.185593  -0.297305   0.000205
     47       0.000106   0.000170   0.289036   0.000108   0.000174   0.212910
     48      -0.006871  -0.235827   0.000108   0.138270  -0.241515   0.000034
     49      -0.235827  -0.237431   0.000174  -0.241515  -0.097851   0.000054
                 12         13         14         15         16         17    
      0      -0.000000  -0.000000  -0.000000   0.000000   0.000000  -0.000000
      1       0.000000  -0.000000  -0.000000   0.000000   0.000000  -0.000000
      2       0.000000   0.000000  -0.000000   0.000000   0.000000  -0.000000
      3       0.000000   0.000000   0.000000   0.000000   0.000000  -0.000000
      4       0.000000  -0.000000  -0.000000   0.000000   0.000000  -0.000000
      5       0.000000   0.000000   0.000000   0.000000   0.000000  -0.000000
      6       0.256644   0.000000  -0.000000   0.000000   0.000000   0.000000
      7       0.000000   0.256644  -0.000000   0.000000   0.000000  -0.000000
      8       0.000000   0.000000   0.000000   0.000000   0.000000   0.000000
      9       0.716849   0.000000   0.000000   0.000000   0.000000   0.000000
     10       0.000000   0.716849   0.000000   0.000000   0.000000   0.000000
     11       0.000000   0.000000   0.000000   0.000000   0.000000   0.000000
     12       1.000000   0.000000   0.000000   0.000000   0.000000   0.000000
     13       0.000000   1.000000   0.000000   0.000000   0.000000   0.000000
     14       0.000000   0.000000   1.000000   0.000000   0.000000   0.000000
     15       0.000000   0.000000   0.000000   1.000000   0.000000   0.000000
     16       0.000000   0.000000   0.000000   0.000000   1.000000   0.000000
     17       0.000000   0.000000   0.000000   0.000000   0.000000   1.000000
     18       0.000000   0.000000  -0.000000   0.000000   0.000000  -0.000000
     19       0.027266   0.000000  -0.012080   0.000013   0.000000   0.020924
     20       0.090762   0.000000  -0.042252   0.000046   0.000000   0.073183
     21       0.326303   0.000001  -0.142670   0.000155   0.000000   0.247112
     22       0.516812   0.000001  -0.134263   0.000146   0.000000   0.232551
     23       0.621814   0.000001  -0.053382   0.000058   0.000000   0.092460
     24      -0.000024  -0.000000   0.000111   0.128286   0.000000  -0.000112
     25       0.002330  -0.000000   0.132317  -0.000184  -0.000000  -0.229179
     26      -0.000000   0.079808   0.000000  -0.000000   0.000040  -0.000001
     27      -0.000081  -0.000000   0.000197   0.299369   0.000001  -0.000153
     28       0.040234  -0.000000   0.108940  -0.000213  -0.000000  -0.188689
     29      -0.000000   0.298047   0.000000  -0.000000   0.000094  -0.000001
     30      -0.000135  -0.000000   0.000089   0.179549   0.000000  -0.000041
     31       0.227515  -0.000001  -0.027564  -0.000026  -0.000000   0.047742
     32      -0.000001   0.656408  -0.000000  -0.000000   0.000056  -0.000001
     33       0.015075   0.000000   0.109662  -0.000246  -0.000000  -0.051678
     34      -0.000001   0.000000  -0.000246  -0.312353  -0.000001   0.000179
     35       0.000000  -0.000016  -0.000000  -0.000001   0.079825   0.000000
     36      -0.026110   0.000000  -0.051678   0.000179   0.000000   0.169335
     37      -0.000000  -0.049721  -0.000000   0.000000  -0.000123   0.000002
     38      -0.158985   0.254683  -0.164032  -0.000104   0.000167  -0.124775
     39      -0.299840   0.480321  -0.106643  -0.000068   0.000108  -0.081120
     40      -0.284682   0.456040  -0.017925  -0.000011   0.000018  -0.013635
     41       0.000031  -0.000049   0.000243  -0.171797   0.275206   0.000086
     42       0.166162   0.074886  -0.074679   0.000002   0.000177  -0.304052
     43       0.074886   0.092948   0.119629   0.000177  -0.000171  -0.063344
     44      -0.158986  -0.254683  -0.164033  -0.000115  -0.000184  -0.124774
     45      -0.299841  -0.480320  -0.106643  -0.000075  -0.000119  -0.081119
     46      -0.284683  -0.456039  -0.017925  -0.000013  -0.000020  -0.013635
     47       0.000034   0.000054   0.000268  -0.171798  -0.275206   0.000095
     48       0.166162  -0.074886  -0.074679   0.000002  -0.000195  -0.304052
     49      -0.074886   0.092949  -0.119629  -0.000195  -0.000188   0.063347
                 18         19         20         21         22         23    
      0       0.000000   0.000000   0.000000   0.001103   0.015871   0.032392
      1       0.000000   0.000001   0.000026   0.008111   0.056662   0.105719
      2       0.000000   0.006330   0.023467   0.126237   0.265519   0.387724
      3       0.000000   0.018295   0.061764   0.238597   0.415619   0.586687
      4       0.000000   0.018797   0.063332   0.244142   0.434584   0.668279
      5       0.000000   0.000002   0.000009   0.000050   0.000080   0.000063
      6       0.000000   0.007336   0.028393   0.158271   0.255834   0.199142
      7       0.000000   0.000000   0.000000   0.000000   0.000000   0.000000
      8       0.000000   0.000012   0.000040   0.000133   0.000181   0.000161
      9       0.000000   0.038791   0.127613   0.423945   0.577835   0.513784
     10       0.000000   0.000000   0.000000   0.000001   0.000001   0.000001
     11       0.000000   0.000009   0.000029   0.000102   0.000162   0.000195
     12       0.000000   0.027266   0.090762   0.326303   0.516812   0.621814
     13       0.000000   0.000000   0.000000   0.000001   0.000001   0.000001
     14      -0.000000  -0.012080  -0.042252  -0.142670  -0.134263  -0.053382
     15       0.000000   0.000013   0.000046   0.000155   0.000146   0.000058
     16       0.000000   0.000000   0.000000   0.000000   0.000000   0.000000
     17      -0.000000   0.020924   0.073183   0.247112   0.232551   0.092460
     18       1.000000   0.000000   0.000000   0.000001   0.000001   0.000000
     19       0.000000   1.000000   0.681550   0.191929   0.098832   0.050120
     20       0.000000   0.681550   1.000000   0.544963   0.311467   0.165386
     21       0.000001   0.191929   0.544963   1.000000   0.856809   0.569049
     22       0.000001   0.098832   0.311467   0.856809   1.000000   0.857539
     23       0.000000   0.050120   0.165386   0.569049   0.857539   1.000000
     24      -0.000000  -0.000000  -0.000000   0.000000  -0.000000   0.000000
     25      -0.000001  -0.000000   0.000000   0.000000  -0.000000   0.000000
     26       0.128286   0.000000  -0.000000   0.000000  -0.000000   0.000000
     27      -0.000000   0.000000   0.000000   0.000000   0.000000   0.000000
     28      -0.000001  -0.000000   0.000000   0.000000   0.000000   0.000000
     29       0.299369   0.000000  -0.000000   0.000000  -0.000000  -0.000000
     30      -0.000000   0.000000  -0.000000   0.000000  -0.000000   0.000000
     31      -0.000000   0.000000   0.000000   0.000000  -0.000000   0.000000
     32       0.179549   0.000000  -0.000000   0.000000  -0.000000  -0.000000
     33      -0.000000   0.000000  -0.000000   0.000000  -0.000000   0.000000
     34       0.000000   0.000000   0.000000   0.000000   0.000000   0.000000
     35      -0.000123   0.000000   0.000000   0.000000   0.000000   0.000000
     36       0.000002  -0.000000  -0.000000  -0.000000  -0.000000  -0.000000
     37      -0.312353   0.000000   0.000000   0.000000   0.000000   0.000000
     38      -0.255247   0.000000   0.000000   0.000178   0.006054   0.051163
     39      -0.165945   0.000690   0.002646   0.018355   0.060188   0.169333
     40      -0.027892   0.007295   0.024852   0.101864   0.198922   0.359079
     41       0.000177  -0.000000  -0.000000  -0.000000  -0.000000  -0.000000
     42       0.004658   0.000010   0.000075   0.003523   0.029418   0.088283
     43       0.261602  -0.000005  -0.000040  -0.001856  -0.015498  -0.046509
     44       0.255248   0.000000   0.000000   0.000178   0.006054   0.051163
     45       0.165945   0.000690   0.002646   0.018355   0.060188   0.169332
     46       0.027893   0.007295   0.024852   0.101863   0.198921   0.359078
     47      -0.000195  -0.000000  -0.000000  -0.000000  -0.000001  -0.000002
     48      -0.004656   0.000010   0.000075   0.003522   0.029417   0.088283
     49       0.261601   0.000005   0.000040   0.001856   0.015498   0.046509
                 24         25         26         27         28         29    
      0      -0.000000  -0.000983  -0.000000  -0.000013  -0.040697  -0.000000
      1      -0.000003  -0.009439  -0.000000  -0.000043  -0.135468  -0.000000
      2      -0.000038  -0.120978  -0.000000  -0.000131  -0.417375  -0.000001
      3      -0.000037  -0.117786  -0.000000  -0.000121  -0.386487  -0.000001
      4      -0.000017  -0.053688  -0.000000  -0.000064  -0.202294  -0.000000
      5       0.035075  -0.000064  -0.000000   0.151288  -0.000163  -0.000000
      6      -0.000064  -0.168558  -0.000000  -0.000163  -0.367066  -0.000001
      7      -0.000000  -0.000000   0.035075  -0.000000  -0.000001   0.151288
      8       0.106759  -0.000085  -0.000000   0.343232  -0.000206  -0.000000
      9      -0.000085  -0.162694  -0.000000  -0.000206  -0.313321  -0.000001
     10      -0.000000  -0.000000   0.106759  -0.000000  -0.000001   0.343232
     11       0.079808  -0.000024  -0.000000   0.298046  -0.000081  -0.000000
     12      -0.000024   0.002330  -0.000000  -0.000081   0.040234  -0.000000
     13      -0.000000  -0.000000   0.079808  -0.000000  -0.000000   0.298047
     14       0.000111   0.132317   0.000000   0.000197   0.108940   0.000000
     15       0.128286  -0.000184  -0.000000   0.299369  -0.000213  -0.000000
     16       0.000000  -0.000000   0.000040   0.000001  -0.000000   0.000094
     17      -0.000112  -0.229179  -0.000001  -0.000153  -0.188689  -0.000001
     18      -0.000000  -0.000001   0.128286  -0.000000  -0.000001   0.299369
     19      -0.000000  -0.000000   0.000000   0.000000  -0.000000   0.000000
     20      -0.000000   0.000000  -0.000000   0.000000   0.000000  -0.000000
     21       0.000000   0.000000   0.000000   0.000000   0.000000   0.000000
     22      -0.000000  -0.000000  -0.000000   0.000000   0.000000  -0.000000
     23       0.000000   0.000000   0.000000   0.000000   0.000000  -0.000000
     24       1.000000   0.000000   0.000000   0.607910   0.000000   0.000000
     25       0.000000   1.000000   0.000000   0.000000   0.607910   0.000000
     26       0.000000   0.000000   1.000000   0.000000   0.000000   0.607910
     27       0.607910   0.000000   0.000000   1.000000   0.000000   0.000000
     28       0.000000   0.607910   0.000000   0.000000   1.000000   0.000000
     29       0.000000   0.000000   0.607910   0.000000   0.000000   1.000000
     30       0.233626   0.000000   0.000000   0.693813   0.000000   0.000000
     31       0.000000   0.233626   0.000000   0.000000   0.693813   0.000000
     32       0.000000   0.000000   0.233626   0.000000   0.000000   0.693813
     33      -0.000000   0.000000   0.000000   0.000000   0.000000   0.000000
     34       0.000000  -0.000000   0.000000  -0.000000   0.000000   0.000000
     35      -0.000000   0.000000  -0.000000   0.000000   0.000000   0.000000
     36       0.000000   0.000000   0.000000   0.000000  -0.000000   0.000000
     37       0.000000  -0.000000   0.000000   0.000000   0.000000  -0.000000
     38       0.000000  -0.000147   0.000078   0.000000  -0.013393   0.007056
     39       0.000000  -0.015254   0.008036   0.000000  -0.095335   0.050225
     40       0.000000  -0.035242   0.018566   0.000001  -0.145076   0.076429
     41       0.000312   0.000000  -0.000000   0.009307   0.000000  -0.000000
     42       0.000000  -0.003441   0.001977   0.000000  -0.058067   0.035494
     43      -0.000000   0.001977  -0.000729  -0.000000   0.035494  -0.009392
     44       0.000000  -0.000147  -0.000078   0.000000  -0.013393  -0.007056
     45       0.000000  -0.015254  -0.008036   0.000002  -0.095335  -0.050224
     46       0.000001  -0.035242  -0.018566   0.000004  -0.145076  -0.076429
     47       0.000312   0.000000   0.000000   0.009307   0.000002   0.000001
     48       0.000000  -0.003441  -0.001977   0.000002  -0.058067  -0.035494
     49       0.000000  -0.001977  -0.000729   0.000001  -0.035494  -0.009392
                 30         31         32         33         34         35    
      0      -0.000019  -0.061264  -0.000000  -0.006099   0.000007   0.000000
      1      -0.000060  -0.192454  -0.000000  -0.028917   0.000031   0.000000
      2      -0.000178  -0.567438  -0.000001  -0.092248   0.000100   0.000000
      3      -0.000200  -0.637406  -0.000001  -0.042959   0.000047   0.000000
      4      -0.000143  -0.454380  -0.000001  -0.009191   0.000010   0.000000
      5       0.202400  -0.000095  -0.000000  -0.000111  -0.131393  -0.000000
      6      -0.000095  -0.100721  -0.000001  -0.126899   0.000179   0.000000
      7      -0.000000  -0.000001   0.202400  -0.000000   0.000000  -0.000041
      8       0.529740  -0.000185  -0.000000  -0.000094  -0.162490  -0.000000
      9      -0.000185  -0.060702  -0.000001  -0.017968   0.000071   0.000000
     10      -0.000000  -0.000001   0.529740  -0.000000   0.000000  -0.000051
     11       0.656408  -0.000135  -0.000000  -0.000022  -0.049721  -0.000000
     12      -0.000135   0.227515  -0.000001   0.015075  -0.000001   0.000000
     13      -0.000000  -0.000001   0.656408   0.000000   0.000000  -0.000016
     14       0.000089  -0.027564  -0.000000   0.109662  -0.000246  -0.000000
     15       0.179549  -0.000026  -0.000000  -0.000246  -0.312353  -0.000001
     16       0.000000  -0.000000   0.000056  -0.000000  -0.000001   0.079825
     17      -0.000041   0.047742  -0.000001  -0.051678   0.000179   0.000000
     18      -0.000000  -0.000000   0.179549  -0.000000   0.000000  -0.000123
     19       0.000000   0.000000   0.000000   0.000000   0.000000   0.000000
     20      -0.000000   0.000000  -0.000000  -0.000000   0.000000   0.000000
     21       0.000000   0.000000   0.000000   0.000000   0.000000   0.000000
     22      -0.000000  -0.000000  -0.000000  -0.000000   0.000000   0.000000
     23       0.000000   0.000000  -0.000000   0.000000   0.000000   0.000000
     24       0.233626   0.000000   0.000000  -0.000000   0.000000  -0.000000
     25       0.000000   0.233626   0.000000   0.000000  -0.000000   0.000000
     26       0.000000   0.000000   0.233626   0.000000   0.000000  -0.000000
     27       0.693813   0.000000   0.000000   0.000000  -0.000000   0.000000
     28       0.000000   0.693813   0.000000   0.000000   0.000000   0.000000
     29       0.000000   0.000000   0.693813   0.000000   0.000000   0.000000
     30       1.000000   0.000000   0.000000   0.000000  -0.000000  -0.000000
     31       0.000000   1.000000   0.000000   0.000000   0.000000   0.000000
     32       0.000000   0.000000   1.000000   0.000000   0.000000   0.000000
     33       0.000000   0.000000   0.000000   1.000000   0.000000   0.000000
     34      -0.000000   0.000000   0.000000   0.000000   1.000000   0.000000
     35      -0.000000   0.000000   0.000000   0.000000   0.000000   1.000000
     36       0.000000  -0.000000   0.000000   0.000000   0.000000   0.000000
     37       0.000000  -0.000000  -0.000000   0.000000   0.000000   0.000000
     38       0.000001  -0.137046   0.072199  -0.000783  -0.000000   0.000000
     39       0.000001  -0.326904   0.172220  -0.016434  -0.000000   0.000000
     40       0.000002  -0.387389   0.204084  -0.012583  -0.000000   0.000000
     41       0.064273   0.000001  -0.000000   0.000000  -0.002645   0.001393
     42       0.000001  -0.145232   0.110372  -0.009111  -0.000000   0.000000
     43      -0.000000   0.110372   0.006127   0.004800   0.000000  -0.000000
     44       0.000004  -0.137046  -0.072199  -0.000783  -0.000000  -0.000000
     45       0.000008  -0.326903  -0.172220  -0.016434  -0.000001  -0.000001
     46       0.000010  -0.387388  -0.204084  -0.012583  -0.000001  -0.000000
     47       0.064272   0.000005   0.000003   0.000000  -0.002644  -0.001393
     48       0.000005  -0.145232  -0.110371  -0.009111  -0.000001  -0.000000
     49       0.000003  -0.110371   0.006126  -0.004800  -0.000000  -0.000000
                 36         37         38         39         40         41    
      0       0.010564   0.000000   0.002147   0.030653   0.034263  -0.000010
      1       0.050087   0.000000   0.013269   0.101360   0.111769  -0.000037
      2       0.159779   0.000001   0.152995   0.377362   0.414030  -0.000122
      3       0.074408   0.000000   0.254300   0.540733   0.651066  -0.000100
      4       0.015919   0.000000   0.240796   0.552907   0.804101  -0.000046
      5       0.000110   0.000000   0.000067   0.000097   0.000041   0.140345
      6       0.219795   0.000001  -0.102785  -0.148902  -0.062434   0.000096
      7       0.000001  -0.131393   0.164654   0.238530   0.100015  -0.000154
      8       0.000061   0.000000   0.000151   0.000210   0.000121   0.289035
      9       0.031122   0.000000  -0.230612  -0.322152  -0.185592   0.000098
     10       0.000001  -0.162490   0.369423   0.516064   0.297305  -0.000158
     11       0.000007   0.000000   0.000104   0.000196   0.000186   0.212910
     12      -0.026110  -0.000000  -0.158985  -0.299840  -0.284682   0.000031
     13       0.000000  -0.049721   0.254683   0.480321   0.456040  -0.000049
     14      -0.051678  -0.000000  -0.164032  -0.106643  -0.017925   0.000243
     15       0.000179   0.000000  -0.000104  -0.000068  -0.000011  -0.171797
     16       0.000000  -0.000123   0.000167   0.000108   0.000018   0.275206
     17       0.169335   0.000002  -0.124775  -0.081120  -0.013635   0.000086
     18       0.000002  -0.312353  -0.255247  -0.165945  -0.027892   0.000177
     19      -0.000000   0.000000   0.000000   0.000690   0.007295  -0.000000
     20      -0.000000   0.000000   0.000000   0.002646   0.024852  -0.000000
     21      -0.000000   0.000000   0.000178   0.018355   0.101864  -0.000000
     22      -0.000000   0.000000   0.006054   0.060188   0.198922  -0.000000
     23      -0.000000   0.000000   0.051163   0.169333   0.359079  -0.000000
     24       0.000000   0.000000   0.000000   0.000000   0.000000   0.000312
     25       0.000000  -0.000000  -0.000147  -0.015254  -0.035242   0.000000
     26       0.000000   0.000000   0.000078   0.008036   0.018566  -0.000000
     27       0.000000   0.000000   0.000000   0.000000   0.000001   0.009307
     28      -0.000000   0.000000  -0.013393  -0.095335  -0.145076   0.000000
     29       0.000000  -0.000000   0.007056   0.050225   0.076429  -0.000000
     30       0.000000   0.000000   0.000001   0.000001   0.000002   0.064273
     31      -0.000000  -0.000000  -0.137046  -0.326904  -0.387389   0.000001
     32       0.000000  -0.000000   0.072199   0.172220   0.204084  -0.000000
     33       0.000000   0.000000  -0.000783  -0.016434  -0.012583   0.000000
     34       0.000000   0.000000  -0.000000  -0.000000  -0.000000  -0.002645
     35       0.000000   0.000000   0.000000   0.000000   0.000000   0.001393
     36       1.000000   0.000000   0.000767   0.016097   0.012325  -0.000000
     37       0.000000   1.000000  -0.001119  -0.023476  -0.017975   0.000000
     38       0.000767  -0.001119   1.000000   0.706215   0.373286  -0.000000
     39       0.016097  -0.023476   0.706215   1.000000   0.788644   0.000000
     40       0.012325  -0.017975   0.373286   0.788644   1.000000   0.000000
     41      -0.000000   0.000000  -0.000000   0.000000   0.000000   1.000000
     42       0.007775  -0.013803   0.000000   0.000000   0.000000   0.000000
     43      -0.006883   0.005361   0.000000   0.000000   0.000000   0.000000
     44       0.000767   0.001119   0.000471   0.026908   0.112385   0.000000
     45       0.016097   0.023476   0.026908   0.126972   0.293424   0.000002
     46       0.012325   0.017975   0.112385   0.293424   0.522015   0.000002
     47      -0.000000  -0.000000  -0.000000  -0.000002  -0.000002   0.006438
     48       0.007775   0.013803   0.000000   0.000000   0.000000   0.000000
     49       0.006882   0.005361   0.007990   0.085235   0.116241   0.000001
                 42         43         44         45         46         47    
      0       0.015606  -0.025000   0.002147   0.030653   0.034263  -0.000011
      1       0.056914  -0.091171   0.013270   0.101360   0.111769  -0.000041
      2       0.187466  -0.300306   0.152996   0.377363   0.414030  -0.000135
      3       0.153755  -0.246304   0.254300   0.540733   0.651066  -0.000111
      4       0.070291  -0.112600   0.240796   0.552907   0.804101  -0.000051
      5       0.000096  -0.000154   0.000074   0.000107   0.000045   0.140345
      6      -0.006870   0.235827  -0.102786  -0.148903  -0.062435   0.000106
      7       0.235827  -0.237432  -0.164654  -0.238530  -0.100015   0.000170
      8       0.000098  -0.000158   0.000166   0.000232   0.000134   0.289036
      9       0.138271   0.241514  -0.230613  -0.322154  -0.185593   0.000108
     10       0.241514  -0.097853  -0.369422  -0.516063  -0.297305   0.000174
     11       0.000031  -0.000049   0.000114   0.000216   0.000205   0.212910
     12       0.166162   0.074886  -0.158986  -0.299841  -0.284683   0.000034
     13       0.074886   0.092948  -0.254683  -0.480320  -0.456039   0.000054
     14      -0.074679   0.119629  -0.164033  -0.106643  -0.017925   0.000268
     15       0.000002   0.000177  -0.000115  -0.000075  -0.000013  -0.171798
     16       0.000177  -0.000171  -0.000184  -0.000119  -0.000020  -0.275206
     17      -0.304052  -0.063344  -0.124774  -0.081119  -0.013635   0.000095
     18       0.004658   0.261602   0.255248   0.165945   0.027893  -0.000195
     19       0.000010  -0.000005   0.000000   0.000690   0.007295  -0.000000
     20       0.000075  -0.000040   0.000000   0.002646   0.024852  -0.000000
     21       0.003523  -0.001856   0.000178   0.018355   0.101863  -0.000000
     22       0.029418  -0.015498   0.006054   0.060188   0.198921  -0.000001
     23       0.088283  -0.046509   0.051163   0.169332   0.359078  -0.000002
     24       0.000000  -0.000000   0.000000   0.000000   0.000001   0.000312
     25      -0.003441   0.001977  -0.000147  -0.015254  -0.035242   0.000000
     26       0.001977  -0.000729  -0.000078  -0.008036  -0.018566   0.000000
     27       0.000000  -0.000000   0.000000   0.000002   0.000004   0.009307
     28      -0.058067   0.035494  -0.013393  -0.095335  -0.145076   0.000002
     29       0.035494  -0.009392  -0.007056  -0.050224  -0.076429   0.000001
     30       0.000001  -0.000000   0.000004   0.000008   0.000010   0.064272
     31      -0.145232   0.110372  -0.137046  -0.326903  -0.387388   0.000005
     32       0.110372   0.006127  -0.072199  -0.172220  -0.204084   0.000003
     33      -0.009111   0.004800  -0.000783  -0.016434  -0.012583   0.000000
     34      -0.000000   0.000000  -0.000000  -0.000001  -0.000001  -0.002644
     35       0.000000  -0.000000  -0.000000  -0.000001  -0.000000  -0.001393
     36       0.007775  -0.006883   0.000767   0.016097   0.012325  -0.000000
     37      -0.013803   0.005361   0.001119   0.023476   0.017975  -0.000000
     38       0.000000   0.000000   0.000471   0.026908   0.112385  -0.000000
     39       0.000000   0.000000   0.026908   0.126972   0.293424  -0.000002
     40       0.000000   0.000000   0.112385   0.293424   0.522015  -0.000002
     41       0.000000   0.000000   0.000000   0.000002   0.000002   0.006438
     42       1.000000   0.000000  -0.000000  -0.000000  -0.000000   0.000000
     43       0.000000   1.000000  -0.007990  -0.085235  -0.116241   0.000001
     44      -0.000000  -0.007990   1.000000   0.706215   0.373286   0.000000
     45      -0.000000  -0.085235   0.706215   1.000000   0.788644   0.000000
     46      -0.000000  -0.116241   0.373286   0.788644   1.000000   0.000000
     47       0.000000   0.000001   0.000000   0.000000   0.000000   1.000000
     48       0.006438  -0.000000  -0.000000   0.000000   0.000000   0.000000
     49      -0.000000  -0.058532  -0.000000   0.000000   0.000000   0.000000
                 48         49    
      0       0.015607   0.025000
      1       0.056914   0.091172
      2       0.187467   0.300306
      3       0.153755   0.246304
      4       0.070291   0.112600
      5       0.000106   0.000170
      6      -0.006871  -0.235827
      7      -0.235827  -0.237431
      8       0.000108   0.000174
      9       0.138270  -0.241515
     10      -0.241515  -0.097851
     11       0.000034   0.000054
     12       0.166162  -0.074886
     13      -0.074886   0.092949
     14      -0.074679  -0.119629
     15       0.000002  -0.000195
     16      -0.000195  -0.000188
     17      -0.304052   0.063347
     18      -0.004656   0.261601
     19       0.000010   0.000005
     20       0.000075   0.000040
     21       0.003522   0.001856
     22       0.029417   0.015498
     23       0.088283   0.046509
     24       0.000000   0.000000
     25      -0.003441  -0.001977
     26      -0.001977  -0.000729
     27       0.000002   0.000001
     28      -0.058067  -0.035494
     29      -0.035494  -0.009392
     30       0.000005   0.000003
     31      -0.145232  -0.110371
     32      -0.110371   0.006126
     33      -0.009111  -0.004800
     34      -0.000001  -0.000000
     35      -0.000000  -0.000000
     36       0.007775   0.006882
     37       0.013803   0.005361
     38       0.000000   0.007990
     39       0.000000   0.085235
     40       0.000000   0.116241
     41       0.000000   0.000001
     42       0.006438  -0.000000
     43      -0.000000  -0.058532
     44      -0.000000  -0.000000
     45       0.000000   0.000000
     46       0.000000   0.000000
     47       0.000000   0.000000
     48       1.000000   0.000000
     49       0.000000   1.000000
----------------------------------------D-I-I-S--------------------------------------------
Iteration    Energy (Eh)           Delta-E    RMSDP     MaxDP     DIISErr   Damp  Time(sec)
-------------------------------------------------------------------------------------------
               ***  Starting incremental Fock matrix formation  ***
                              *** Initializing SOSCF ***
---------------------------------------S-O-S-C-F--------------------------------------
Iteration    Energy (Eh)           Delta-E    RMSDP     MaxDP     MaxGrad    Time(sec)
--------------------------------------------------------------------------------------
    1    -114.5106860896921717     0.00e+00  3.03e-07  2.73e-06  8.11e-07     0.3
               *** Restarting incremental Fock matrix formation ***
    2    -114.5106860896820820     1.01e-11  3.22e-07  3.54e-06  2.38e-06     0.3
                  *** Gradient check signals convergence ***

               *****************************************************
               *                     SUCCESS                       *
               *           SCF CONVERGED AFTER   2 CYCLES          *
               *****************************************************

Recomputing exchange energy using gridx3       ... done (    0.491 sec)
Old exchange energy                            :     -4.479049076 Eh
New exchange energy                            :     -4.479044720 Eh
Exchange energy change after final integration :      0.000004356 Eh
Total energy after final integration           :   -114.510681731 Eh
             **** ENERGY FILE WAS UPDATED (ch2o_orca.en.tmp) ****

----------------
TOTAL SCF ENERGY
----------------

Total Energy       :       -114.51068173076857 Eh           -3115.99406 eV

Components:
Nuclear Repulsion  :         31.43154525669784 Eh             855.29583 eV
Electronic Energy  :       -145.94223134307862 Eh           -3971.29001 eV
One Electron Energy:       -217.79610939386976 Eh           -5926.53344 eV
Two Electron Energy:         71.85387805079115 Eh            1955.24342 eV

Virial components:
Potential Energy   :       -228.60656468824868 Eh           -6220.70088 eV
Kinetic Energy     :        114.09588295748011 Eh            3104.70682 eV
Virial Ratio       :          2.00363552796592

DFT components:
N(Alpha)           :        8.000002233992 electrons
N(Beta)            :        8.000002233992 electrons
N(Total)           :       16.000004467984 electrons
E(XC)              :      -10.207532388747 Eh       

---------------
SCF CONVERGENCE
---------------

  Last Energy change         ...   -1.0090e-11  Tolerance :   1.0000e-06
  Last MAX-Density change    ...    3.5363e-06  Tolerance :   1.0000e-05
  Last RMS-Density change    ...    3.2186e-07  Tolerance :   1.0000e-06
  Last DIIS Error            ...    6.2279e-06  Tolerance :   1.0000e-06
  Last Orbital Gradient      ...    2.3820e-06  Tolerance :   5.0000e-05
  Last Orbital Rotation      ...    4.3875e-06  Tolerance :   5.0000e-05


----------------
ORBITAL ENERGIES
----------------

  NO   OCC          E(Eh)            E(eV) 
   0   2.0000     -19.251180      -523.8512 
   1   2.0000     -10.378940      -282.4253 
   2   2.0000      -1.187808       -32.3219 
   3   2.0000      -0.748507       -20.3679 
   4   2.0000      -0.606307       -16.4985 
   5   2.0000      -0.559189       -15.2163 
   6   2.0000      -0.507768       -13.8171 
   7   2.0000      -0.369533       -10.0555 
   8   0.0000       0.035133         0.9560 
   9   0.0000       0.140646         3.8272 
  10   0.0000       0.198790         5.4094 
  11   0.0000       0.201425         5.4810 
  12   0.0000       0.294413         8.0114 
  13   0.0000       0.299175         8.1410 
  14   0.0000       0.352757         9.5990 
  15   0.0000       0.501640        13.6503 
  16   0.0000       0.529047        14.3961 
  17   0.0000       0.533621        14.5206 
  18   0.0000       0.608750        16.5649 
*Only the first 10 virtual orbitals were printed.
------------------------------
MOLECULAR ORBITALS (RHF, ROHF)
------------------------------
                      0         1         2         3         4         5   
                 -19.25118 -10.37894  -1.18781  -0.74851  -0.60631  -0.55919
                   2.00000   2.00000   2.00000   2.00000   2.00000   2.00000
                  --------  --------  --------  --------  --------  --------
  0C   1s         0.000006  0.467687 -0.056784 -0.079139 -0.000000  0.014073
  0C   2s        -0.000077  0.608475 -0.119463 -0.169983 -0.000000  0.031167
  0C   3s         0.000659  0.034193  0.199352  0.280522  0.000000 -0.067687
  0C   4s        -0.000068 -0.021294  0.116795  0.325607  0.000000 -0.054909
  0C   5s        -0.005013  0.009581  0.029803  0.069032 -0.000000  0.043967
  0C   1pz        0.000000  0.000000  0.000049  0.000044 -0.000007  0.000058
  0C   1px        0.000534  0.001094  0.144024 -0.153366  0.000000 -0.271163
  0C   1py        0.000000 -0.000000  0.000000 -0.000000  0.317952  0.000001
  0C   2pz        0.000000  0.000000  0.000015  0.000026 -0.000005  0.000059
  0C   2px        0.000656 -0.000115  0.056232 -0.098494  0.000000 -0.192131
  0C   2py        0.000000 -0.000000  0.000000 -0.000000  0.241608  0.000001
  0C   3pz       -0.000001  0.000001  0.000004  0.000003 -0.000001  0.000028
  0C   3px       -0.002441 -0.002525  0.000156 -0.030339 -0.000000 -0.023188
  0C   3py       -0.000000 -0.000000  0.000000 -0.000000  0.065411  0.000000
  0C   1dz2      -0.000226 -0.001099 -0.010946 -0.005726 -0.000000  0.004503
  0C   1dxz       0.000000  0.000000  0.000012 -0.000006 -0.000000 -0.000002
  0C   1dyz      -0.000000 -0.000000  0.000000 -0.000000  0.000017 -0.000000
  0C   1dx2y2     0.000114  0.000871  0.021331 -0.009976 -0.000000 -0.021197
  0C   1dxy      -0.000000  0.000000  0.000000  0.000000  0.003903  0.000000
  1O   1s         0.435650 -0.000098 -0.090086  0.041106  0.000000 -0.036875
  1O   2s         0.639471 -0.000261 -0.212185  0.097923  0.000000 -0.087974
  1O   3s         0.033073  0.001433  0.309302 -0.150322 -0.000001  0.130487
  1O   4s        -0.021038 -0.003493  0.399986 -0.204976 -0.000001  0.209342
  1O   5s         0.012921  0.004794  0.105835 -0.137939 -0.000001  0.245338
  1O   1pz       -0.000001 -0.000000 -0.000039  0.000007 -0.000005  0.000248
  1O   1px       -0.001837 -0.000349 -0.125125 -0.080651 -0.000002  0.391545
  1O   1py       -0.000000 -0.000000 -0.000000 -0.000000  0.222586  0.000002
  1O   2pz        0.000001  0.000001 -0.000028  0.000009 -0.000004  0.000197
  1O   2px        0.002257  0.002235 -0.092716 -0.058565 -0.000001  0.283629
  1O   2py        0.000000  0.000000 -0.000000 -0.000000  0.183925  0.000001
  1O   3pz       -0.000001 -0.000001  0.000000 -0.000000 -0.000002  0.000088
  1O   3px       -0.002534 -0.002971  0.000258 -0.021205 -0.000000  0.128835
  1O   3py       -0.000000  0.000000  0.000000 -0.000000  0.076265  0.000001
  1O   1dz2       0.000073  0.000442 -0.006079 -0.003378 -0.000000  0.012026
  1O   1dxz      -0.000000 -0.000001  0.000009 -0.000002  0.000000 -0.000024
  1O   1dyz       0.000000  0.000000  0.000000 -0.000000 -0.000006  0.000000
  1O   1dx2y2    -0.000126 -0.000697  0.016245  0.003664  0.000000 -0.018623
  1O   1dxy      -0.000000 -0.000000  0.000000  0.000000 -0.020889 -0.000000
  2H   1s         0.000024 -0.000121  0.015787  0.110073  0.116626  0.051678
  2H   2s        -0.000216  0.000715  0.017831  0.141163  0.156048  0.071560
  2H   3s         0.000397 -0.003085 -0.006256  0.024953  0.052031  0.028225
  2H   1pz       -0.000000  0.000000 -0.000000 -0.000006 -0.000007 -0.000001
  2H   1px       -0.000253 -0.000401  0.005031  0.006648  0.010486 -0.003258
  2H   1py        0.000086  0.000882 -0.003601 -0.017494 -0.011278 -0.007078
  3H   1s         0.000024 -0.000121  0.015787  0.110073 -0.116626  0.051678
  3H   2s        -0.000216  0.000715  0.017831  0.141164 -0.156048  0.071559
  3H   3s         0.000397 -0.003085 -0.006256  0.024953 -0.052031  0.028225
  3H   1pz       -0.000000  0.000000 -0.000000 -0.000007  0.000008 -0.000001
  3H   1px       -0.000253 -0.000401  0.005031  0.006648 -0.010486 -0.003258
  3H   1py       -0.000086 -0.000882  0.003601  0.017494 -0.011278  0.007078
                      6         7         8         9        10        11   
                  -0.50777  -0.36953   0.03513   0.14065   0.19879   0.20142
                   2.00000   2.00000   0.00000   0.00000   0.00000   0.00000
[...]
Average number of grid points per atom       ...      315

---------------
TD-DFT XC SETUP
---------------

DFT calculation                         ... on
Name of the grid file                   ... ch2o_orca.grid_cis.tmp
RI-approximation                        ... on
Aux-basis dimension                     ... 0
Exchange functional (TD-DFT)            ... WB97X-D3
Correlation functional (TD-DFT)         ... WB97X-D3
Hybrid DFT                              ... on
   Exchange mixing (TD-DFT)             ...  0.196
   GGA exch. scaling (TD-DFT)           ...  0.000
   GGA corr. scaling (TD-DFT)           ...  1.000
Range-Separated Exchange                ... on
   Range Range separation parameter mu  .... 0.250
   Max. amount of RS exchange (TD-DFT)  ...  0.804

Building densities             ... done
Calculating rho(r) on the grid ... done
Building xc-kernel on the grid ... done
                    *** TD-DFT CALCULATION INITIALIZED ***

------------------------
DAVIDSON-DIAGONALIZATION
------------------------

Dimension of the eigenvalue problem            ...    252
Number of roots to be determined               ...      5
Maximum size of the expansion space            ...     50
Maximum number of iterations                   ...    100
Convergence tolerance for the residual         ...    1.000e-06
Convergence tolerance for the energies         ...    1.000e-06
Orthogonality tolerance                        ...    1.000e-14
Level Shift                                    ...    0.000e+00
Constructing the preconditioner                ... o.k.
Building the initial guess                     ... o.k.
Number of trial vectors determined             ...     50


                       ****Iteration    0****
   Time for iteration     :  TOTAL=0.2 TRAFO=0.0 RIJ=0.0 COSX=0.1 XC=0.1
   Size of expansion space: 15
   Lowest Energy          :     0.150599718186
   Maximum Energy change  :     0.386422560782 (vector 4)
   Maximum residual norm  :     0.009148968774

                       ****Iteration    1****
   Time for iteration     :  TOTAL=0.1 TRAFO=0.0 RIJ=0.0 COSX=0.1 XC=0.0
   Size of expansion space: 20
   Lowest Energy          :     0.149164858746
   Maximum Energy change  :     0.007262512016 (vector 2)
   Maximum residual norm  :     0.000583536115

                       ****Iteration    2****
   Time for iteration     :  TOTAL=0.1 TRAFO=0.0 RIJ=0.0 COSX=0.1 XC=0.0
   Size of expansion space: 25
   Lowest Energy          :     0.149147846430
   Maximum Energy change  :     0.000418913539 (vector 2)
   Maximum residual norm  :     0.000006923492

                       ****Iteration    3****
   Time for iteration     :  TOTAL=0.1 TRAFO=0.0 RIJ=0.0 COSX=0.1 XC=0.0
   Size of expansion space: 30
   Lowest Energy          :     0.149147803465
   Maximum Energy change  :     0.000009891537 (vector 2)
   Maximum residual norm  :     0.000000513070

      *** CONVERGENCE OF RESIDUAL NORM REACHED ***

Storing the converged CI vectors               ... ch2o_orca.cis1

                 *** DAVIDSON DONE ***

Total time for solving the CIS problem:     0.544sec

------------------------------------
TD-DFT/TDA EXCITED STATES (SINGLETS)
------------------------------------

the weight of the individual excitations are printed if larger than 1.0e-02

STATE  1:  E=   0.149148 au      4.059 eV    32734.2 cm**-1 <S**2> =   0.000000 Mult 1
     7a ->   8a  :     0.991191 (c= -0.99558584)

STATE  2:  E=   0.315554 au      8.587 eV    69256.1 cm**-1 <S**2> =   0.000000 Mult 1
     7a ->   9a  :     0.943370 (c= -0.97127253)
     7a ->  10a  :     0.047209 (c=  0.21727618)

STATE  3:  E=   0.345228 au      9.394 eV    75768.8 cm**-1 <S**2> =   0.000000 Mult 1
     5a ->   8a  :     0.986843 (c=  0.99339965)

STATE  4:  E=   0.354553 au      9.648 eV    77815.4 cm**-1 <S**2> =   0.000000 Mult 1
     7a ->   9a  :     0.046815 (c=  0.21636725)
     7a ->  10a  :     0.947273 (c=  0.97327955)

STATE  5:  E=   0.383789 au     10.443 eV    84232.0 cm**-1 <S**2> =   0.000000 Mult 1
     4a ->   8a  :     0.989324 (c=  0.99464788)

Storing amplitudes in GBW file ... 
... GBW file created

-----------------------------
TD-DFT/TDA-EXCITATION SPECTRA
-----------------------------

Center of mass = (  0.8818,  0.0000, -0.0001)
Generating CIS transition densities           ... done

----------------------------------------------------------------------------------------------------
                     ABSORPTION SPECTRUM VIA TRANSITION ELECTRIC DIPOLE MOMENTS    
----------------------------------------------------------------------------------------------------
     Transition      Energy     Energy  Wavelength fosc(D2)      D2        DX        DY        DZ   
                      (eV)      (cm-1)    (nm)                 (au**2)    (au)      (au)      (au)  
----------------------------------------------------------------------------------------------------
  0-1A  ->  1-1A    4.058518   32734.2   305.5   0.000000010   0.00000   0.00000   0.00032   0.00000
  0-1A  ->  2-1A    8.586663   69256.1   144.4   0.113441414   0.53925   0.00000  -0.73434   0.00002
  0-1A  ->  3-1A    9.394137   75768.8   132.0   0.001054403   0.00458   0.00045  -0.00000  -0.06768
  0-1A  ->  4-1A    9.647878   77815.4   128.5   0.061675812   0.26093  -0.00000   0.51081  -0.00001
  0-1A  ->  5-1A   10.443435   84232.0   118.7   0.000000020   0.00000  -0.00007   0.00027  -0.00000

----------------------------------------------------------------------------------------------------
                     ABSORPTION SPECTRUM VIA TRANSITION VELOCITY DIPOLE MOMENTS    
----------------------------------------------------------------------------------------------------
     Transition      Energy     Energy  Wavelength fosc(P2)      P2        PX        PY        PZ   
                      (eV)      (cm-1)    (nm)                 (au**2)    (au)      (au)      (au)  
----------------------------------------------------------------------------------------------------
  0-1A  ->  1-1A    4.058518   32734.2   305.5   0.000000000   0.00000   0.00000   0.00000   0.00000
  0-1A  ->  2-1A    8.586663   69256.1   144.4   0.068893011   0.03261  -0.00000   0.18058  -0.00000
  0-1A  ->  3-1A    9.394137   75768.8   132.0   0.000159549   0.00008   0.00001  -0.00000  -0.00909
  0-1A  ->  4-1A    9.647878   77815.4   128.5   0.066041266   0.03512  -0.00000  -0.18741   0.00000
  0-1A  ->  5-1A   10.443435   84232.0   118.7   0.000000012   0.00000   0.00003  -0.00008   0.00000

------------------------------------------------------------------------------------------
                     CD SPECTRUM VIA TRANSITION ELECTRIC DIPOLE MOMENTS    
------------------------------------------------------------------------------------------
     Transition      Energy     Energy  Wavelength    R        MX        MY        MZ   
                      (eV)      (cm-1)    (nm)   (1e40*cgs)   (au)      (au)      (au)  
------------------------------------------------------------------------------------------
  0-1A  ->  1-1A    4.058518   32734.2   305.5    0.00003  -0.59075  -0.00000  -0.00013
  0-1A  ->  2-1A    8.586663   69256.1   144.4   -0.00002  -0.00002  -0.00001  -0.48185
  0-1A  ->  3-1A    9.394137   75768.8   132.0    0.00001   0.00000  -0.73188   0.00002
  0-1A  ->  4-1A    9.647878   77815.4   128.5    0.00002   0.00022  -0.00001  -0.44912
  0-1A  ->  5-1A   10.443435   84232.0   118.7   -0.00989  -0.32106   0.00001  -0.00003

------------------------------------------------------------------------------------------
                     CD SPECTRUM VIA TRANSITION VELOCITY DIPOLE MOMENTS    
------------------------------------------------------------------------------------------
     Transition      Energy     Energy  Wavelength    R        MX        MY        MZ   
                      (eV)      (cm-1)    (nm)   (1e40*cgs)   (au)      (au)      (au)  
------------------------------------------------------------------------------------------
  0-1A  ->  1-1A    4.058518   32734.2   305.5   -0.00003  -0.59075  -0.00000  -0.00013
  0-1A  ->  2-1A    8.586663   69256.1   144.4   -0.00001  -0.00002  -0.00001  -0.48185
  0-1A  ->  3-1A    9.394137   75768.8   132.0   -0.00001   0.00000  -0.73188   0.00002
  0-1A  ->  4-1A    9.647878   77815.4   128.5    0.00004   0.00022  -0.00001  -0.44912
  0-1A  ->  5-1A   10.443435   84232.0   118.7   -0.01220  -0.32106   0.00001  -0.00003

Total run time:        0.602 sec

           *** ORCA-CIS/TD-DFT FINISHED WITHOUT ERROR ***
-----------------------
CIS/TD-DFT TOTAL ENERGY
-----------------------

    E(SCF)  =   -114.510681731 Eh
    DE(CIS) =      0.149147803 Eh (Root  1)
    ----------------------------- ---------
    E(tot)  =   -114.361533927 Eh


Maximum memory used throughout the entire CIS-calculation: 8.9 MB
=> NOW LEAVING ORCA_CIS


-------------------------------------------------------------------------------
                          DFT DISPERSION CORRECTION                            
                                                                               
                              DFTD3 V3.1  Rev 1                                
                              USING zero damping                               
-------------------------------------------------------------------------------
The omegaB97X-D3 functional is recognized. Fit by Chai et al.
Active option DFTDOPT                   ...         3   

molecular C6(AA) [au] = 146.466849 


            DFT-D V3
 parameters
 s6 scaling factor         :     1.0000 
 rs6 scaling factor        :     1.2810 
 s8 scaling factor         :     1.0000 
 rs8 scaling factor        :     1.0940 
 Damping factor alpha6     :    14.0000 
 Damping factor alpha8     :    16.0000 
 ad hoc parameters k1-k3   :    16.0000     1.3333    -4.0000 

 Edisp/kcal,au: -0.039574337812  -0.000063065715 
 E6   /kcal   :  -0.005095233 
 E8   /kcal   :  -0.034479105 
 % E8         :  87.124907557 

-------------------------   ----------------
Dispersion correction           -0.000063066
-------------------------   ----------------


-------------------------   --------------------
FINAL SINGLE POINT ENERGY      -114.361596993019
-------------------------   --------------------


------------------------------------------------------------------------------
                              ORCA PROPERTY CALCULATIONS
------------------------------------------------------------------------------

GBWName                                 ... ch2o_orca.gbw
Number of atoms                         ...      4
Number of basis functions               ...     50
Max core memory                         ...   4096 MB

Electric properties:
Dipole moment                           ... YES
Quadrupole moment                       ...  NO
Static polarizability (Dipole/Dipole)   ...  NO
Static polarizability (Dipole/Quad.)    ...  NO
Static polarizability (Quad./Quad.)     ...  NO
Static polarizability (Velocity)        ...  NO
Static hyperpolarizability              ...  NO

Atomic electric properties:
Dipole moment                           ...  NO
Quadrupole moment                       ...  NO
Static polarizability                   ...  NO

Choice of electric origin               ... Center of mass
Position of electric origin             ...     0.881849     0.000000    -0.000111

General magnetic properties:
Magnetizability                         ...  NO

EPR properties:
g-Tensor (aka g-matrix)                 ...  NO
Zero-Field splitting spin-orbit         ...  NO
Zero-field splitting spin-spin          ...  NO
Hyperfine couplings                     ...  NO (   0 nuclei)
Quadrupole couplings                    ...  NO (   0 nuclei)
Contact density                         ...  NO (   0 nuclei)

NMR properties:
Chemical shifts                         ...  NO (   0 nuclei)
Spin-rotation constants                 ...  NO (   0 nuclei)
Spin-spin couplings                     ...  NO (   0 nuclei,    0 pairs)

Choice of magnetic origin               ... GIAO
Position of magnetic origin             ...     0.000000     0.000000     0.000000

Properties with geometric perturbations:
SCF Hessian                             ...  NO
IR spectrum                             ...  NO
VCD spectrum                            ...  NO
X-ray spectroscopy properties:
SCF XES/XAS/RIXS spectra                ...  NO

SCF SOC stabilization energy            ...  NO
Diagonal Born-Oppenheimer correction    ...  NO

-------------
DIPOLE MOMENT
-------------

Method             : SCF
Type of density    : Electron Density
Multiplicity       :   1
Irrep              :   0
Energy             :  -114.5106817307685674 Eh
Basis              : AO
                                X                 Y                 Z
Electronic contribution:      1.256231924      -0.000001825      -0.000454859
Nuclear contribution   :     -2.214802150      -0.000000236       0.000330801
                        -----------------------------------------
Total Dipole Moment    :     -0.958570225      -0.000002061      -0.000124059
                        -----------------------------------------
Magnitude (a.u.)       :      0.958570233
Magnitude (Debye)      :      2.436491902



--------------------
Rotational spectrum 
--------------------
 
Rotational constants in cm-1:             9.469407             1.310151             1.150915 
Rotational constants in MHz :        283885.690518         39277.344947         34503.565450 

Dipole components along the rotational axes: 
x,y,z [a.u.] :     0.958570    -0.000000     0.000073 
x,y,z [Debye]:     2.436492    -0.000001     0.000184 

 

Dipole moment calculation done in   0.0 sec 

Maximum memory used throughout the entire PROP-calculation: 4.0 MB

--------------------------------
SUGGESTED CITATIONS FOR THIS RUN
--------------------------------

Below you find a list of papers that are relevant to this ORCA run
We neither can nor want to force you to cite these papers, but we appreciate if you do
You receive ORCA, which is the product of decades of hard work by many enthusiastic individuals, for free
The only thing we kindly ask in return is that you cite our papers,
We deeply appreciate it, if you show your appreciation for ORCA by not just citing the generic ORCA reference.

Please note that relegating all ORCA citations to the supporting information does *not* help us.
SI sections are not indexed - citations you put there will not count into any citation statistics
But we need these citations in order to attract the funding resources that allow us to do what we are doing

Therefore, if you are a happy ORCA user, please consider citing a few of the papers listed below in the main body of your paper

In addition to the list printed below, the program has created the file ch2o_orca.bibtex that contains the list in bibtex format
You can import this file easily into all common literature databanks and citation aid programs

It goes without saying that in many instances, there are alternative algorithms to achieve similar
results as the ones you have gotten from ORCA. It is, of course, also the case that in some instances
ORCA just re-implements algorithms worked out by others. We are fully aware of that and we are also
fully appreciative of our colleagues work. Hence this citation list should not be read as indicating
that the listed papers, which are focused on our own work, are the only ones worth citing. It simply
meant to make it easier for users to cite ORCA specific papers. It is not a substitute for doing your
own literature research and citing the relevant literature in a scientifically appropriate manner.

List of essential papers. We consider these as the minimum necessary citations

  1. Neese, F.
     Software update: the ORCA program system, version 6.0
     WIRES Comput. Molec. Sci. 2025 15(1), e70019
     doi.org/10.1002/wcms.70019

List of papers to cite with high priority. The work reported in these papers was absolutely
necessary for this run to complete.
Our perspective: the developers of density functionals and basis sets usually get cited in chemistry papers
Good! But without the algorithms to do something with them, the functionals or basis sets would not do anything.
Hence, in our opinion, the algorithm design and method developments papers are equally worthy of getting cited

  1. Neese, F.; Olbrich, G.
     Efficient use of the resolution of the identity approximation in time-dependent density functional calculations with hybrid density functionals
     Chem. Phys. Lett. 2002 362 , 170-178
     doi.org/10.1016/s0009-2614(02)01053-9
  2. Neese, F.
     An improvement of the resolution of the identity approximation for the formation of the Coulomb matrix
     J. Comp. Chem. 2003 24(14), 1740-1747
     doi.org/10.1002/jcc.10318
  3. Neese, F.; Wennmohs, F.; Hansen, A.; Becker, U.
     Efficient, approximate and parallel Hartree-Fock and hybrid DFT calculations. A 'chain-of-spheres' algorithm for the Hartree-Fock exchange
     Chem. Phys. 2009 356(1-3), 98-109
     doi.org/10.1016/j.chemphys.2008.10.036
  4. Grimme, S.; Antony, J.; Ehrlich, S.; Krieg, H.
     A consistent and accurate ab initio parametrization of density functional dispersion correction (DFT-D) for the 94 elements H-Pu
     J. Chem. Phys. 2010 132 , 154104
     doi.org/10.1063/1.3382344
  5. Helmich-Paris, B.; de Souza, B.; Neese, F.; Izsák, R.
     An improved chain of spheres for exchange algorithm
     J. Chem. Phys. 2021 155(10), 104109
     doi.org/10.1063/5.0058766
  6. Neese, F.
     The SHARK Integral Generation and Digestion System
     J. Comp. Chem. 2022 44(3), 381
     doi.org/10.1002/jcc.26942

List of suggested additional citations. These are papers that are important in the 'surrounding' of 
of this run, or papers that preceded the highly important papers. If you like your results we are grateful for a citation.

  1. Izsak, R.; Neese, F.
     An overlap fitted chain of spheres exchange method
     J. Chem. Phys. 2011 135 , 144105
     doi.org/10.1063/1.3646921
  2. Izsak, R.; Hansen, A.; Neese, F.
     The resolution of identity and chain of spheres approximations for the LPNO-CCSD singles Fock term
     Molec. Phys. 2012 110 , 2413-2417
     doi.org/10.1080/00268976.2012.687466
  3. Neese, F.
     The ORCA program system
     WIRES Comput. Molec. Sci. 2012 2(1), 73-78
     doi.org/10.1002/wcms.81
  4. Izsak, R.; Neese, F.; Klopper, W.
     Robust fitting techniques in the chain of spheres approximation to the Fock exchange: The role of the complementary space
     J. Chem. Phys. 2013 139 , 
     doi.org/10.1063/1.4819264
  5. Neese, F.
     Software update: the ORCA program system, version 4.0
     WIRES Comput. Molec. Sci. 2018 8(1), 1-6
     doi.org/10.1002/wcms.1327
  6. Neese, F.; Wennmohs, F.; Becker, U.; Riplinger, C.
     The ORCA quantum chemistry program package
     J. Chem. Phys. 2020 152(22), 224108
     doi.org/10.1063/5.0004608
  7. Neese, F.
     Software update: The ORCA program system—Version 5.0
     WIRES Comput. Molec. Sci. 2022 12(1), e1606
     doi.org/10.1002/wcms.1606

List of optional additional citations

  1. Neese, F.
     Approximate second-order SCF convergence for spin unrestricted wavefunctions
     Chem. Phys. Lett. 2000 325(1-3), 93-98
     doi.org/10.1016/s0009-2614(00)00662-x

Timings for individual modules:

Sum of individual times          ...        2.268 sec (=   0.038 min)
Startup calculation              ...        0.157 sec (=   0.003 min)   6.9 %
SCF iterations                   ...        1.417 sec (=   0.024 min)  62.5 %
Property integrals               ...        0.040 sec (=   0.001 min)   1.8 %
Property calculations            ...        0.038 sec (=   0.001 min)   1.7 %
CIS module                       ...        0.616 sec (=   0.010 min)  27.1 %
                             ****ORCA TERMINATED NORMALLY****
TOTAL RUN TIME: 0 days 0 hours 0 minutes 2 seconds 412 msec
